# vtk DataFile Version 2.0
3D_wedge_tank, Created by Gmsh 4.13.1 
ASCII
DATASET UNSTRUCTURED_GRID
POINTS 175 double
0 -0.1 0
1 -0.1 0
1 -0.03 0
1 0.03 0
1 0.1 0
0 0.1 0
0 0.03 0
-0.15 0.03 0
-0.15 -0.03 0
0 -0.03 0
0.1111111111109082 -0.1 0
0.2222222222217143 -0.1 0
0.333333333332501 -0.1 0
0.4444444444432878 -0.1 0
0.5555555555543833 -0.1 0
0.6666666666657874 -0.1 0
0.7777777777771916 -0.1 0
0.8888888888885959 -0.1 0
1 -0.08250000000004334 0
1 -0.06500000000009756 0
1 -0.04750000000004879 0
1 -0.01500000000003931 0
1 -8.468573065023577e-14 0
1 0.01499999999995867 0
1 0.04749999999995899 0
1 0.06499999999991124 0
1 0.08249999999995292 0
0.8888888888884262 0.1 0
0.777777777777932 0.1 0
0.6666666666675918 0.1 0
0.5555555555572513 0.1 0
0.4444444444462943 0.1 0
0.3333333333347207 0.1 0
0.2222222222231471 0.1 0
0.1111111111115736 0.1 0
0 0.08250000000004334 0
0 0.06500000000009756 0
0 0.04750000000004879 0
-0.01666666666663625 0.03 0
-0.03333333333325877 0.03 0
-0.0499999999998769 0.03 0
-0.06666666666649773 0.03 0
-0.08333333333316251 0.03 0
-0.09999999999987391 0.03 0
-0.1166666666665853 0.03 0
-0.1333333333332886 0.03 0
-0.15 0.01500000000003931 0
-0.15 8.468573065023577e-14 0
-0.15 -0.01499999999995867 0
-0.1333333333333544 -0.03 0
-0.1166666666667468 -0.03 0
-0.1000000000001283 -0.03 0
-0.08333333333350443 -0.03 0
-0.06666666666683925 -0.03 0
-0.0500000000001274 -0.03 0
-0.03333333333341555 -0.03 0
-0.01666666666671185 -0.03 0
0 -0.04749999999995899 0
0 -0.06499999999991124 0
0 -0.08249999999995292 0
0 -0.01500000000003931 0
0 -8.468573065023577e-14 0
0 0.01499999999995867 0
0.8888888888884262 -0.03 0
0.777777777777932 -0.03 0
0.6666666666675918 -0.03 0
0.5555555555572513 -0.03 0
0.4444444444462943 -0.03 0
0.3333333333347207 -0.03 0
0.2222222222231471 -0.03 0
0.1111111111115736 -0.03 0
0.1111111111109082 0.03 0
0.2222222222217143 0.03 0
0.333333333332501 0.03 0
0.4444444444432878 0.03 0
0.5555555555543833 0.03 0
0.6666666666657874 0.03 0
0.7777777777771916 0.03 0
0.8888888888885959 0.03 0
0.1111111111110746 -0.08249999999996296 0
0.1111111111112409 -0.06499999999993196 0
0.1111111111114072 -0.04749999999996896 0
0.2222222222220725 -0.082499999999973 0
0.2222222222224307 -0.06499999999995267 0
0.2222222222227889 -0.04749999999997893 0
0.333333333333056 -0.08249999999998306 0
0.3333333333336109 -0.06499999999997337 0
0.3333333333341658 -0.04749999999998893 0
0.4444444444440394 -0.08249999999999312 0
0.444444444444791 -0.06499999999999405 0
0.4444444444455427 -0.04749999999999889 0
0.5555555555551003 -0.08250000000000315 0
0.5555555555558173 -0.06500000000001475 0
0.5555555555565342 -0.04750000000000888 0
0.6666666666662386 -0.08250000000001319 0
0.6666666666666896 -0.06500000000003546 0
0.6666666666671408 -0.04750000000001885 0
0.7777777777773767 -0.08250000000002324 0
0.7777777777775619 -0.06500000000005617 0
0.777777777777747 -0.04750000000002884 0
0.8888888888885536 -0.08250000000003331 0
0.8888888888885111 -0.06500000000007687 0
0.8888888888884685 -0.0475000000000388 0
0.8888888888884686 -0.0150000000000393 0
0.888888888888511 -8.468573065023577e-14 0
0.8888888888885534 0.01499999999995867 0
0.7777777777777468 -0.01500000000003931 0
0.7777777777775619 -8.468573065023577e-14 0
0.7777777777773767 0.01499999999995867 0
0.6666666666671408 -0.0150000000000393 0
0.6666666666666896 -8.468226120328382e-14 0
0.6666666666662384 0.01499999999995867 0
0.5555555555565344 -0.01500000000003931 0
0.5555555555558174 -8.468399592675979e-14 0
0.5555555555551004 0.01499999999995867 0
0.4444444444455427 -0.0150000000000393 0
0.444444444444791 -8.46831285650218e-14 0
0.4444444444440394 0.01499999999995867 0
0.3333333333341659 -0.01500000000003931 0
0.3333333333336108 -8.468399592675979e-14 0
0.3333333333330559 0.01499999999995867 0
0.2222222222227889 -0.01500000000003931 0
0.2222222222224307 -8.468442960762879e-14 0
0.2222222222220724 0.01499999999995867 0
0.1111111111114073 -0.01500000000003931 0
0.1111111111112409 -8.468638117153926e-14 0
0.1111111111110746 0.01499999999995867 0
0.1111111111110746 0.04750000000003881 0
0.1111111111112409 0.06500000000007684 0
0.1111111111114072 0.08250000000003327 0
0.2222222222220725 0.04750000000002882 0
0.2222222222224307 0.06500000000005614 0
0.2222222222227889 0.08250000000002322 0
0.333333333333056 0.04750000000001885 0
0.3333333333336109 0.06500000000003543 0
0.3333333333341659 0.08250000000001316 0
0.4444444444440394 0.04750000000000886 0
0.444444444444791 0.06500000000001473 0
0.4444444444455427 0.08250000000000311 0
0.5555555555551003 0.04749999999999888 0
0.5555555555558173 0.06499999999999402 0
0.5555555555565342 0.08249999999999308 0
0.6666666666662386 0.04749999999998891 0
0.6666666666666896 0.06499999999997332 0
0.6666666666671408 0.08249999999998302 0
0.7777777777773767 0.04749999999997893 0
0.7777777777775619 0.06499999999995264 0
0.777777777777747 0.08249999999997298 0
0.8888888888885536 0.04749999999996896 0
0.8888888888885111 0.06499999999993193 0
0.8888888888884687 0.08249999999996294 0
-0.133333333333338 -0.01499999999996763 0
-0.1333333333333215 6.586745038283937e-14 0
-0.133333333333305 0.01500000000003035 0
-0.1166666666667064 -0.01499999999997658 0
-0.116666666666666 4.704743539196699e-14 0
-0.1166666666666257 0.01500000000002139 0
-0.1000000000000647 -0.01499999999998555 0
-0.1000000000000011 2.822915512457058e-14 0
-0.09999999999993751 0.01500000000001243 0
-0.08333333333341893 -0.01499999999999451 0
-0.08333333333333347 9.409140133698202e-15 0
-0.08333333333324798 0.01500000000000347 0
-0.06666666666675387 -0.01500000000000347 0
-0.0666666666666685 -9.408272771960213e-15 0
-0.06666666666658312 0.01499999999999451 0
-0.05000000000006477 -0.01500000000001243 0
-0.05000000000000215 -2.822828776283259e-14 0
-0.04999999999993953 0.01499999999998555 0
-0.03333333333337636 -0.01500000000002138 0
-0.03333333333333716 -4.704786907283598e-14 0
-0.03333333333329796 0.01499999999997659 0
-0.01666666666669294 -0.01500000000003035 0
-0.01666666666667405 -6.586831774457735e-14 0
-0.01666666666665515 0.01499999999996763 0

CELLS 204 900
2 0 10
2 10 11
2 11 12
2 12 13
2 13 14
2 14 15
2 15 16
2 16 17
2 17 1
2 1 18
2 18 19
2 19 20
2 20 2
2 2 21
2 21 22
2 22 23
2 23 3
2 3 24
2 24 25
2 25 26
2 26 4
2 4 27
2 27 28
2 28 29
2 29 30
2 30 31
2 31 32
2 32 33
2 33 34
2 34 5
2 5 35
2 35 36
2 36 37
2 37 6
2 6 38
2 38 39
2 39 40
2 40 41
2 41 42
2 42 43
2 43 44
2 44 45
2 45 7
2 7 46
2 46 47
2 47 48
2 48 8
2 8 49
2 49 50
2 50 51
2 51 52
2 52 53
2 53 54
2 54 55
2 55 56
2 56 9
2 9 57
2 57 58
2 58 59
2 59 0
4 0 10 79 59
4 59 79 80 58
4 58 80 81 57
4 57 81 70 9
4 10 11 82 79
4 79 82 83 80
4 80 83 84 81
4 81 84 69 70
4 11 12 85 82
4 82 85 86 83
4 83 86 87 84
4 84 87 68 69
4 12 13 88 85
4 85 88 89 86
4 86 89 90 87
4 87 90 67 68
4 13 14 91 88
4 88 91 92 89
4 89 92 93 90
4 90 93 66 67
4 14 15 94 91
4 91 94 95 92
4 92 95 96 93
4 93 96 65 66
4 15 16 97 94
4 94 97 98 95
4 95 98 99 96
4 96 99 64 65
4 16 17 100 97
4 97 100 101 98
4 98 101 102 99
4 99 102 63 64
4 17 1 18 100
4 100 18 19 101
4 101 19 20 102
4 102 20 2 63
4 2 21 103 63
4 21 22 104 103
4 22 23 105 104
4 23 3 78 105
4 63 103 106 64
4 103 104 107 106
4 104 105 108 107
4 105 78 77 108
4 64 106 109 65
4 106 107 110 109
4 107 108 111 110
4 108 77 76 111
4 65 109 112 66
4 109 110 113 112
4 110 111 114 113
4 111 76 75 114
4 66 112 115 67
4 112 113 116 115
4 113 114 117 116
4 114 75 74 117
4 67 115 118 68
4 115 116 119 118
4 116 117 120 119
4 117 74 73 120
4 68 118 121 69
4 118 119 122 121
4 119 120 123 122
4 120 73 72 123
4 69 121 124 70
4 121 122 125 124
4 122 123 126 125
4 123 72 71 126
4 70 124 60 9
4 124 125 61 60
4 125 126 62 61
4 126 71 6 62
4 6 71 127 37
4 37 127 128 36
4 36 128 129 35
4 35 129 34 5
4 71 72 130 127
4 127 130 131 128
4 128 131 132 129
4 129 132 33 34
4 72 73 133 130
4 130 133 134 131
4 131 134 135 132
4 132 135 32 33
4 73 74 136 133
4 133 136 137 134
4 134 137 138 135
4 135 138 31 32
4 74 75 139 136
4 136 139 140 137
4 137 140 141 138
4 138 141 30 31
4 75 76 142 139
4 139 142 143 140
4 140 143 144 141
4 141 144 29 30
4 76 77 145 142
4 142 145 146 143
4 143 146 147 144
4 144 147 28 29
4 77 78 148 145
4 145 148 149 146
4 146 149 150 147
4 147 150 27 28
4 78 3 24 148
4 148 24 25 149
4 149 25 26 150
4 150 26 4 27
4 8 49 151 48
4 48 151 152 47
4 47 152 153 46
4 46 153 45 7
4 49 50 154 151
4 151 154 155 152
4 152 155 156 153
4 153 156 44 45
4 50 51 157 154
4 154 157 158 155
4 155 158 159 156
4 156 159 43 44
4 51 52 160 157
4 157 160 161 158
4 158 161 162 159
4 159 162 42 43
4 52 53 163 160
4 160 163 164 161
4 161 164 165 162
4 162 165 41 42
4 53 54 166 163
4 163 166 167 164
4 164 167 168 165
4 165 168 40 41
4 54 55 169 166
4 166 169 170 167
4 167 170 171 168
4 168 171 39 40
4 55 56 172 169
4 169 172 173 170
4 170 173 174 171
4 171 174 38 39
4 56 9 60 172
4 172 60 61 173
4 173 61 62 174
4 174 62 6 38

CELL_TYPES 204
3
3
3
3
3
3
3
3
3
3
3
3
3
3
3
3
3
3
3
3
3
3
3
3
3
3
3
3
3
3
3
3
3
3
3
3
3
3
3
3
3
3
3
3
3
3
3
3
3
3
3
3
3
3
3
3
3
3
3
3
9
9
9
9
9
9
9
9
9
9
9
9
9
9
9
9
9
9
9
9
9
9
9
9
9
9
9
9
9
9
9
9
9
9
9
9
9
9
9
9
9
9
9
9
9
9
9
9
9
9
9
9
9
9
9
9
9
9
9
9
9
9
9
9
9
9
9
9
9
9
9
9
9
9
9
9
9
9
9
9
9
9
9
9
9
9
9
9
9
9
9
9
9
9
9
9
9
9
9
9
9
9
9
9
9
9
9
9
9
9
9
9
9
9
9
9
9
9
9
9
9
9
9
9
9
9
9
9
9
9
9
9
9
9
9
9
9
9
9
9
9
9
9
9

CELL_DATA 204
SCALARS CellEntityIds int 1
LOOKUP_TABLE default
1
1
1
1
1
1
1
1
1
1
1
1
1
1
1
1
1
1
1
1
1
1
1
1
1
1
1
1
1
1
1
1
1
1
1
1
1
1
1
1
1
1
1
2
2
2
2
1
1
1
1
1
1
1
1
1
1
1
1
1
3
3
3
3
3
3
3
3
3
3
3
3
3
3
3
3
3
3
3
3
3
3
3
3
3
3
3
3
3
3
3
3
3
3
3
3
3
3
3
3
3
3
3
3
3
3
3
3
3
3
3
3
3
3
3
3
3
3
3
3
3
3
3
3
3
3
3
3
3
3
3
3
3
3
3
3
3
3
3
3
3
3
3
3
3
3
3
3
3
3
3
3
3
3
3
3
3
3
3
3
3
3
3
3
3
3
3
3
3
3
3
3
3
3
3
3
3
3
3
3
3
3
3
3
3
3
3
3
3
3
3
3
3
3
3
3
3
3
3
3
3
3
3
3
